ITLE = "title"
VARIABLES = "X","Y","Z","u","v","w","p","gama","Ux","Uy","Uz","pPrime","MF","rho","rhoPrime","T","TPrime",Y_species_0,Y_species_1,Y_species_2
ZONE T = FEBRICK_0, N = 6649, E = 28845, DATAPACKING = POINT, ZONETYPE = FEBRICK
-0.00512283 -0.00902463 0.0143911 -9.98539 -0.0210532 0.196846 299.846 1.7894e-05 503.895 -584.548 439.263 0.0122196 1e-05 1.30008 1.56324e-07 300.844 0 5.99114e-09 0.999911 8.85356e-05 
-0.00390258 -0.00790758 0.00115616 -9.99434 -0.00935338 0.00118385 298.346 1.7894e-05 154.234 -556.987 93.5427 0.012226 1e-05 1.30007 1.56406e-07 300.844 0 5.99114e-09 0.999911 8.85356e-05 
-0.00673708 -0.00792099 0.00105853 -9.96395 0.166127 -0.0042986 299.98 1.7894e-05 459.036 1706.45 -280.187 0.0122432 1e-05 1.30009 1.56627e-07 300.844 0 5.99114e-09 0.999911 8.85356e-05 
-0.00694028 -0.00779273 -0.00176931 -9.99805 0.0174103 0.0140605 298.814 1.7894e-05 622.384 150.059 -111.1 0.0122448 1e-05 1.30007 1.56647e-07 300.844 0 5.99114e-09 0.999911 8.85356e-05 
-0.00292896 0.014584 -0.00869392 -9.95056 -0.056842 -0.00359074 298.45 1.7894e-05 -320.063 14.3754 36.5737 0.0122033 1e-05 1.30007 1.56116e-07 300.844 0 5.99114e-09 0.999911 8.85356e-05 
-0.00716694 0.00672309 0.0155946 -10.0457 0.010987 -0.00847567 298.266 1.7894e-05 1.21477 125.153 -177.765 0.0122178 1e-05 1.30006 1.56301e-07 300.844 0 5.99114e-09 0.999911 8.85356e-05 
-0.00538894 0.00876526 0.0145424 -10.052 0.00765088 -0.00675775 298.429 1.7894e-05 79.3653 -41.7182 -61.2221 0.0122071 1e-05 1.30007 1.56164e-07 300.844 0 5.99114e-09 0.999911 8.85356e-05 
-0.00666178 -3.37487e-05 0.00876485 -9.9817 -0.00345127 0.0597462 298.471 1.7894e-05 310.156 49.5727 -520.951 0.012227 1e-05 1.30007 1.56418e-07 300.844 0 5.99114e-09 0.999911 8.85356e-05 
-0.00820721 0.00150205 0.00879735 -9.99114 0.0056414 -0.00450842 298.671 1.7894e-05 80.4154 71.7474 319.704 0.0122261 1e-05 1.30007 1.56407e-07 300.844 0 5.99114e-09 0.999911 8.85356e-05 
-0.00823311 -0.0014952 0.00877445 -10.0016 -0.000201754 0.0147768 298.612 1.7894e-05 -67.3022 -123.115 165.817 0.012232 1e-05 1.30007 1.56483e-07 300.844 0 5.99114e-09 0.999911 8.85356e-05 
-0.00515979 0.00912 -0.0125054 -10.0246 -0.00540225 -0.00886371 298.632 1.7894e-05 59.4981 15.2071 92.3532 0.0122104 1e-05 1.30007 1.56206e-07 300.844 0 5.99114e-09 0.999911 8.85356e-05 
-0.0109758 0.00295754 -0.0123528 -10.0244 0.00352448 -0.000658506 298.682 1.7894e-05 17.37 4.31741 5.92869 0.0122367 1e-05 1.30007 1.56543e-07 300.844 0 5.99114e-09 0.999911 8.85356e-05 
-0.0112398 0.00912 -0.0125054 -10.0101 0.00810466 -0.0153738 298.622 1.7894e-05 -1.10007 -59.781 16.5272 0.0122295 1e-05 1.30007 1.56451e-07 300.844 0 5.99114e-09 0.999911 8.85356e-05 
-0.01463 0.00636337 -0.010007 -10.0149 0.0134342 -0.00077334 298.507 1.7894e-05 9.09873 -23.0621 13.4402 0.0122342 1e-05 1.30007 1.56511e-07 300.844 0 5.99114e-09 0.999911 8.85356e-05 
-0.0112313 0.00847215 0.00501512 -9.98291 -0.0113336 -0.00631159 298.536 1.7894e-05 -38.9886 65.7503 -16.6046 0.0122209 1e-05 1.30007 1.56341e-07 300.844 0 5.99114e-09 0.999911 8.85356e-05 
-0.0112398 0.00912 0.0118146 -10.036 -0.013913 -0.00951908 298.584 1.7894e-05 28.3655 41.4263 40.999 0.0122252 1e-05 1.30007 1.56396e-07 300.844 0 5.99114e-09 0.999911 8.85356e-05 
-0.00503434 0.00290625 0.011787 -10.0317 0.00202039 -0.00442582 298.662 1.7894e-05 17.1213 17.6487 -54.8011 0.0122109 1e-05 1.30007 1.56212e-07 300.844 0 5.99114e-09 0.999911 8.85356e-05 
-0.00827499 -0.00637233 0.0090661 -10.0224 -0.0021442 -0.00559753 298.643 1.7894e-05 67.5423 5.613 -13.2576 0.0122363 1e-05 1.30007 1.56538e-07 300.844 0 5.99114e-09 0.999911 8.85356e-05 
-0.00515979 -0.00304 0.0118146 -10.0578 0.00927365 -0.0341407 298.642 1.7894e-05 85.7343 -46.6051 -5.4519 0.0122169 1e-05 1.30007 1.5629e-07 300.844 0 5.99114e-09 0.999911 8.85356e-05 
-0.00819979 0 0.0148546 -10.1027 -0.0262566 -0.0721257 297.887 1.7894e-05 55.2435 50.9896 154.739 0.0122244 1e-05 1.30006 1.56385e-07 300.844 0 5.99114e-09 0.999911 8.85356e-05 
-0.00220377 9.64803e-05 -0.00894816 -9.97117 0.0035195 -0.00206852 299.007 1.7894e-05 -47.4723 5.63544 57.0818 0.0122078 1e-05 1.30007 1.56173e-07 300.844 0 5.99114e-09 0.999911 8.85356e-05 
-0.005257 0.00315628 -0.0121264 -10.028 0.00400883 0.00419614 298.677 1.7894e-05 19.7541 13.9363 76.487 0.0122153 1e-05 1.30007 1.56269e-07 300.844 0 5.99114e-09 0.999911 8.85356e-05 
-0.00220238 -0.00666396 0.00933755 -10.0042 0.00368035 -0.00635571 298.869 1.7894e-05 61.1924 -1.23732 59.4124 0.0122113 1e-05 1.30007 1.56218e-07 300.844 0 5.99114e-09 0.999911 8.85356e-05 
-0.00515979 -0.00912 0.0118146 -10.0184 0.0115248 -0.0298338 298.536 1.7894e-05 79.0068 -7.93624 127.579 0.0122212 1e-05 1.30007 1.56344e-07 300.844 0 5.99114e-09 0.999911 8.85356e-05 
-0.00526236 -0.0094535 0.00603363 -10.0164 -0.00333856 -0.00169164 298.686 1.7894e-05 48.2927 13.7325 -4.63359 0.0122261 1e-05 1.30007 1.56408e-07 300.844 0 5.99114e-09 0.999911 8.85356e-05 
-0.00819979 -0.01216 0.00877456 -9.97974 -0.0182827 0.000838995 298.696 1.7894e-05 24.5102 -79.7029 -22.4313 0.0122372 1e-05 1.30007 1.56549e-07 300.844 0 5.99114e-09 0.999911 8.85356e-05 
-0.00517467 -0.00973322 -0.00644849 -9.98596 -0.0099126 -0.00630246 298.766 1.7894e-05 17.6305 -25.7851 5.7625 0.0122293 1e-05 1.30007 1.56449e-07 300.844 0 5.99114e-09 0.999911 8.85356e-05 
-0.00819979 -0.01216 -0.00946544 -9.96707 -0.0105311 0.00240562 298.7 1.7894e-05 -16.7207 -32.3075 -26.8033 0.0122402 1e-05 1.30007 1.56588e-07 300.844 0 5.99114e-09 0.999911 8.85356e-05 
-0.0112704 -0.00308587 -0.0124023 -10.015 -0.00202334 0.00135718 298.67 1.7894e-05 11.8155 12.0679 -25.4675 0.0122439 1e-05 1.30007 1.56634e-07 300.844 0 5.99114e-09 0.999911 8.85356e-05 
-0.00502466 -0.00276666 -0.0125325 -10.01 -0.00490156 -0.00254359 298.815 1.7894e-05 29.9556 16.1094 2.61073 0.0122207 1e-05 1.30007 1.56339e-07 300.844 0 5.99114e-09 0.999911 8.85356e-05 
-0.00536326 -0.0151171 -0.000178732 -9.98843 -0.00722954 0.0154941 298.861 1.7894e-05 -9.25607 44.8072 60.8132 0.0122296 1e-05 1.30007 1.56453e-07 300.844 0 5.99114e-09 0.999911 8.85356e-05 
-0.00790223 -0.011988 0.00260162 -9.97652 -0.00455073 0.00419935 298.679 1.7894e-05 23.9724 -76.2325 9.61279 0.0122416 1e-05 1.30007 1.56605e-07 300.844 0 5.99114e-09 0.999911 8.85356e-05 
-0.00671088 -3.58928e-05 -0.0087126 -9.985 0.0210896 0.0355915 298.579 1.7894e-05 178.479 -297.073 -543.401 0.0122317 1e-05 1.30007 1.56479e-07 300.844 0 5.99114e-09 0.999911 8.85356e-05 
-0.00356227 -0.000112942 -0.00930276 -9.97534 0.00446133 -0.01286 298.668 1.7894e-05 257.988 134.555 138.06 0.0122143 1e-05 1.30007 1.56256e-07 300.844 0 5.99114e-09 0.999911 8.85356e-05 
-0.0990153 0.0125567 -0.00451618 -4.5224 -1.48879 -1.84695 348.811 1.7894e-05 900.405 17143 16866.2 0.0122532 1e-05 1.30071 1.56754e-07 300.844 0 5.99114e-09 0.999911 8.85356e-05 
-0.10282 0.01026 -0.00699544 -10.9078 -8.69486 -6.36725 215.149 1.7894e-05 18009.9 29300.2 7612.46 -0.00712397 1e-05 1.299 -9.11362e-08 300.844 0 5.99114e-09 0.999911 8.85356e-05 
-0.10282 0.01007 -0.00680544 -11.0541 -8.81052 -6.43046 211.076 1.7894e-05 17996.8 29980.8 8778.62 -0.00751884 1e-05 1.29895 -9.61878e-08 300.844 0 5.99114e-09 0.999911 8.85356e-05 
-0.102767 0.0116315 -0.00826646 -9.94771 -7.50544 -6.14955 241.667 1.7894e-05 13267 22288.5 7666.33 -0.00455478 1e-05 1.29934 -5.82688e-08 300.844 0 5.99114e-09 0.999911 8.85356e-05 
-0.101588 0.0140059 -0.00899755 -7.55451 -4.38498 -5.66101 290.747 1.7894e-05 8834.83 20399.9 9067.14 0.00320683 1e-05 1.29997 4.10246e-08 300.844 0 5.99114e-09 0.999911 8.85356e-05 
-0.101632 0.0138577 -0.00892872 -7.70646 -4.63479 -5.80007 288.616 1.7894e-05 9575.81 14020.7 10573.7 0.00303638 1e-05 1.29994 3.88441e-08 300.844 0 5.99114e-09 0.999911 8.85356e-05 
-0.00763144 0.00966263 0.00492438 -10.0093 -0.000466788 -0.00314348 298.635 1.7894e-05 26.0083 86.5682 -12.9716 0.0122144 1e-05 1.30007 1.56257e-07 300.844 0 5.99114e-09 0.999911 8.85356e-05 
-0.00740383 0.00803433 0.00493753 -9.97464 0.0207225 -0.00608384 298.176 1.7894e-05 100.936 11.4804 -76.6616 0.012217 1e-05 1.30006 1.56291e-07 300.844 0 5.99114e-09 0.999911 8.85356e-05 
-0.00667979 0.00912 0.00421456 -10.0005 0.0145921 -0.00294513 298.648 1.7894e-05 138.642 51.0728 -38.3763 0.0122128 1e-05 1.30007 1.56237e-07 300.844 0 5.99114e-09 0.999911 8.85356e-05 
-0.00592169 0.00995565 0.00498233 -10.0027 0.00841205 -0.00356186 298.724 1.7894e-05 25.9364 -18.3112 -13.4811 0.0122081 1e-05 1.30007 1.56177e-07 300.844 0 5.99114e-09 0.999911 8.85356e-05 
-0.00591979 0.00836 0.00497456 -9.99732 0.0199492 0.00396367 298.729 1.7894e-05 244.046 -179.916 -205.291 0.0122106 1e-05 1.30007 1.56209e-07 300.844 0 5.99114e-09 0.999911 8.85356e-05 
-0.00797091 0.00906708 0.00426871 -9.99958 -0.00110929 -0.00621765 298.512 1.7894e-05 75.006 205.848 25.2121 0.012217 1e-05 1.30007 1.56291e-07 300.844 0 5.99114e-09 0.999911 8.85356e-05 
-0.00743155 0.00980157 0.00337818 -9.99895 0.00716943 -0.00651169 298.628 1.7894e-05 49.1715 79.8251 8.59656 0.0122147 1e-05 1.30007 1.56262e-07 300.844 0 5.99114e-09 0.999911 8.85356e-05 
-0.00897711 0.00829656 0.00494293 -9.96668 0.00560815 -0.00713776 298.272 1.7894e-05 -53.4333 -34.2578 -142.817 0.0122192 1e-05 1.30006 1.56319e-07 300.844 0 5.99114e-09 0.999911 8.85356e-05 
-0.00819979 0.0076 0.00573456 -9.95773 0.0275087 0.018532 298.114 1.7894e-05 92.9159 -225.07 -121.402 0.0122186 1e-05 1.30006 1.56311e-07 300.844 0 5.99114e-09 0.999911 8.85356e-05 
-0.00667979 0.01064 0.00269456 -9.99263 0.0123957 -0.00397375 298.716 1.7894e-05 30.6597 28.231 1.39058 0.0122106 1e-05 1.30007 1.56209e-07 300.844 0 5.99114e-09 0.999911 8.85356e-05 
-0.00568647 0.0101697 0.00335533 -9.99119 0.0154808 -0.00506781 298.746 1.7894e-05 30.0083 -17.6257 6.78732 0.0122078 1e-05 1.30007 1.56173e-07 300.844 0 5.99114e-09 0.999911 8.85356e-05 
-0.00515979 0.00912 0.00421456 -9.99046 0.0132137 -0.00604767 298.794 1.7894e-05 45.5109 -101.16 -27.5709 0.0122065 1e-05 1.30007 1.56157e-07 300.844 0 5.99114e-09 0.999911 8.85356e-05 
-0.00439979 0.00836 0.00497456 -9.99262 0.00848239 -0.00510997 298.847 1.7894e-05 20.3025 -133.629 -51.0744 0.0122024 1e-05 1.30007 1.56104e-07 300.844 0 5.99114e-09 0.999911 8.85356e-05 
-0.00515979 0.0076 0.00573456 -9.99096 0.0169294 -0.0028217 298.956 1.7894e-05 113.473 -225.743 -24.1104 0.0122077 1e-05 1.30007 1.56172e-07 300.844 0 5.99114e-09 0.999911 8.85356e-05 
-0.00895979 0.00684 0.00649456 -9.96137 0.0247106 0.0256937 298.288 1.7894e-05 17.3518 -149.389 -152.425 0.0122201 1e-05 1.30006 1.5633e-07 300.844 0 5.99114e-09 0.999911 8.85356e-05 
-0.00819979 0.0076 0.00725456 -10.0062 0.00207408 -0.00254082 298.524 1.7894e-05 36.7655 75.2391 134.017 0.0122185 1e-05 1.30007 1.5631e-07 300.844 0 5.99114e-09 0.999911 8.85356e-05 
-0.00770018 0.00689277 0.00803921 -10.0161 0.000855119 0.00255724 298.58 1.7894e-05 71.0843 23.0123 56.9139 0.0122179 1e-05 1.30007 1.56302e-07 300.844 0 5.99114e-09 0.999911 8.85356e-05 
-0.00971979 0.00608 0.00725456 -9.98512 0.0221114 0.0208944 298.188 1.7894e-05 -8.58027 -167.76 -185.512 0.0122213 1e-05 1.30006 1.56346e-07 300.844 0 5.99114e-09 0.999911 8.85356e-05 
-0.00895979 0.00532 0.00801456 -10.0057 0.00368266 0.0076663 298.441 1.7894e-05 81.8833 -55.5043 -38.6641 0.0122224 1e-05 1.30007 1.5636e-07 300.844 0 5.99114e-09 0.999911 8.85356e-05 
-0.0107405 0.00653987 0.00643024 -9.97708 0.0135597 0.00491975 298.346 1.7894e-05 94.2276 88.6294 39.1297 0.0122203 1e-05 1.30007 1.56333e-07 300.844 0 5.99114e-09 0.999911 8.85356e-05 
-0.00956814 0.00728647 0.00558542 -9.95809 0.0147204 0.00834221 298.298 1.7894e-05 5.04396 -25.8441 -21.9516 0.0122199 1e-05 1.30007 1.56328e-07 300.844 0 5.99114e-09 0.999911 8.85356e-05 
-0.00667979 0.00608 0.00725456 -9.99985 0.00419924 0.0187047 298.694 1.7894e-05 160.527 -56.1836 -117.48 0.0122168 1e-05 1.30007 1.56288e-07 300.844 0 5.99114e-09 0.999911 8.85356e-05 
-0.00819262 0.00754093 -0.00643211 -9.99187 0.0109576 0.00643093 298.584 1.7894e-05 123.812 -22.8902 19.2076 0.0122221 1e-05 1.30007 1.56356e-07 300.844 0 5.99114e-09 0.999911 8.85356e-05 
-0.00728667 0.00683908 -0.00719394 -9.99757 0.0065601 0.00599983 298.681 1.7894e-05 90.3994 -75.6044 76.8725 0.01222 1e-05 1.30007 1.56329e-07 300.844 0 5.99114e-09 0.999911 8.85356e-05 
-0.00917644 0.00851266 -0.00538531 -9.99403 0.00756044 0.00730122 298.546 1.7894e-05 33.1752 11.42 -9.22726 0.012223 1e-05 1.30007 1.56368e-07 300.844 0 5.99114e-09 0.999911 8.85356e-05 
-0.00939467 0.00765376 -0.00630815 -9.98886 0.0083914 0.00845322 298.506 1.7894e-05 34.935 62.9398 -32.196 0.0122246 1e-05 1.30007 1.56389e-07 300.844 0 5.99114e-09 0.999911 8.85356e-05 
-0.0102291 0.00637763 -0.00682514 -9.98768 0.0126298 0.0111255 298.565 1.7894e-05 -5.50795 61.1745 -182.997 0.0122272 1e-05 1.30007 1.56422e-07 300.844 0 5.99114e-09 0.999911 8.85356e-05 
-0.00976201 0.00582841 -0.00807637 -9.99014 0.0157582 0.00286041 298.633 1.7894e-05 -17.5995 -28.9062 -58.1039 0.0122278 1e-05 1.30007 1.56429e-07 300.844 0 5.99114e-09 0.999911 8.85356e-05 
-0.00819979 0.00912 -0.00490544 -9.99618 0.00588587 0.00745183 298.586 1.7894e-05 35.0741 -14.6882 3.45359 0.0122195 1e-05 1.30007 1.56323e-07 300.844 0 5.99114e-09 0.999911 8.85356e-05 
-0.0067026 0.00750306 -0.00634262 -9.99303 0.00836861 0.0053241 298.769 1.7894e-05 102.145 -148.087 105.862 0.0122166 1e-05 1.30007 1.56285e-07 300.844 0 5.99114e-09 0.999911 8.85356e-05 
-0.0055245 0.00696821 -0.00724971 -9.99388 0.00551002 0.00167811 298.844 1.7894e-05 48.0267 -62.3583 95.74 0.0122117 1e-05 1.30007 1.56223e-07 300.844 0 5.99114e-09 0.999911 8.85356e-05 
-0.00667979 0.00608 -0.00794544 -9.99564 0.00346538 -0.000366334 298.723 1.7894e-05 54.5023 -18.4947 97.5703 0.0122191 1e-05 1.30007 1.56317e-07 300.844 0 5.99114e-09 0.999911 8.85356e-05 
-0.00971979 0.00456 -0.00946544 -9.99981 0.00850393 -0.000315287 298.68 1.7894e-05 31.8244 0.085289 -4.46177 0.0122302 1e-05 1.30007 1.56459e-07 300.844 0 5.99114e-09 0.999911 8.85356e-05 
-0.00896006 0.00530826 -0.010308 -10.0109 0.00568554 0.00165657 298.69 1.7894e-05 15.2876 2.83045 -36.4695 0.0122273 1e-05 1.30007 1.56423e-07 300.844 0 5.99114e-09 0.999911 8.85356e-05 
-0.0104798 0.00532 -0.00870544 -9.99091 0.0137652 -0.000934466 298.662 1.7894e-05 -0.670562 -13.2919 4.09944 0.0122295 1e-05 1.30007 1.56451e-07 300.844 0 5.99114e-09 0.999911 8.85356e-05 
-0.00895979 0.00532 -0.00870544 -9.99271 0.00912027 0.00180217 298.673 1.7894e-05 5.98407 -39.1156 -36.5293 0.0122272 1e-05 1.30007 1.56422e-07 300.844 0 5.99114e-09 0.999911 8.85356e-05 
-0.00971979 0.00608 -0.00946544 -10.0051 0.00816387 0.00426909 298.655 1.7894e-05 16.6357 -10.8296 -21.1869 0.0122279 1e-05 1.30007 1.5643e-07 300.844 0 5.99114e-09 0.999911 8.85356e-05 
-0.0104575 0.00365775 -0.0100765 -10.0127 0.00594255 0.00236069 298.643 1.7894e-05 33.5528 7.9521 -28.5946 0.0122337 1e-05 1.30007 1.56505e-07 300.844 0 5.99114e-09 0.999911 8.85356e-05 
-0.00880375 0.00373359 -0.0104219 -10.0111 0.00670175 0.000444402 298.707 1.7894e-05 29.3132 -11.4211 2.0088 0.0122299 1e-05 1.30007 1.56456e-07 300.844 0 5.99114e-09 0.999911 8.85356e-05 
-0.0112398 0.00456 -0.00946544 -10.0007 0.00901305 -0.00136934 298.639 1.7894e-05 1.00716 11.8907 41.1536 0.0122317 1e-05 1.30007 1.56479e-07 300.844 0 5.99114e-09 0.999911 8.85356e-05 
-0.0119889 0.00525333 -0.00871665 -9.99566 0.0135774 -0.00188818 298.65 1.7894e-05 13.5567 -55.2209 80.2169 0.0122305 1e-05 1.30007 1.56463e-07 300.844 0 5.99114e-09 0.999911 8.85356e-05 
-0.0112383 0.00609296 -0.00771447 -9.98651 0.0183079 0.00495367 298.663 1.7894e-05 -28.9966 -60.5666 11.7425 0.0122283 1e-05 1.30007 1.56435e-07 300.844 0 5.99114e-09 0.999911 8.85356e-05 
-0.0071605 0.00518083 -0.00898335 -9.99792 0.0053401 -0.00068664 298.685 1.7894e-05 5.30362 6.4035 -5.22413 0.0122227 1e-05 1.30007 1.56363e-07 300.844 0 5.99114e-09 0.999911 8.85356e-05 
-0.00744209 0.00684945 -0.00877653 -10.0066 0.0058261 -0.000437119 298.649 1.7894e-05 22.3397 -16.6277 -6.43132 0.01222 1e-05 1.30007 1.5633e-07 300.844 0 5.99114e-09 0.999911 8.85356e-05 
-0.00819979 0.00456 -0.00946544 -9.99929 0.00788805 -0.000439389 298.695 1.7894e-05 -3.66771 -13.9734 -19.3292 0.0122266 1e-05 1.30007 1.56414e-07 300.844 0 5.99114e-09 0.999911 8.85356e-05 
-0.00819979 -0.0076 -0.00642544 -9.98148 0.0039061 0.00228609 298.709 1.7894e-05 23.7688 20.2112 18.8843 0.0122438 1e-05 1.30007 1.56634e-07 300.844 0 5.99114e-09 0.999911 8.85356e-05 
-0.00920799 -0.00842605 -0.00724482 -9.99462 -0.000554745 0.00203822 298.672 1.7894e-05 21.1034 3.50924 -4.75234 0.0122459 1e-05 1.30007 1.5666e-07 300.844 0 5.99114e-09 0.999911 8.85356e-05 
-0.00772218 -0.00843758 -0.0073746 -9.99384 -0.0011653 0.00217997 298.699 1.7894e-05 13.5552 -8.30335 -5.69838 0.0122403 1e-05 1.30007 1.56589e-07 300.844 0 5.99114e-09 0.999911 8.85356e-05 
-0.00895979 -0.00684 -0.00718544 -9.98536 0.00423279 -0.00124324 298.693 1.7894e-05 10.4988 -4.3882 8 0.0122448 1e-05 1.30007 1.56647e-07 300.844 0 5.99114e-09 0.999911 8.85356e-05 
-0.00743979 -0.00684 -0.00718544 -9.98724 0.00426172 0.00311495 298.701 1.7894e-05 -5.08769 -24.3231 24.3281 0.0122406 1e-05 1.30007 1.56592e-07 300.844 0 5.99114e-09 0.999911 8.85356e-05 
-0.00820056 -0.00738141 -0.00772799 -9.9989 0.000963036 0.00531473 298.704 1.7894e-05 18.859 -0.240879 -0.773857 0.0122425 1e-05 1.30007 1.56618e-07 300.844 0 5.99114e-09 0.999911 8.85356e-05 
-0.00884911 -0.00835636 -0.00577797 -9.98284 0.00289984 -0.000950317 298.68 1.7894e-05 22.1327 8.54801 19.4877 0.0122461 1e-05 1.30007 1.56663e-07 300.844 0 5.99114e-09 0.999911 8.85356e-05 
-0.00745303 -0.00845674 -0.00568846 -9.98344 0.00469944 -0.000501155 298.702 1.7894e-05 8.14417 12.6561 6.75366 0.0122417 1e-05 1.30007 1.56607e-07 300.844 0 5.99114e-09 0.999911 8.85356e-05 
-0.00971979 -0.0076 -0.00642544 -9.98099 0.00202514 -0.000127286 298.663 1.7894e-05 8.59442 36.4383 32.8109 0.0122469 1e-05 1.30007 1.56674e-07 300.844 0 5.99114e-09 0.999911 8.85356e-05 
-0.0104798 -0.00684 -0.00718544 -9.9863 0.00399677 -0.00102191 298.679 1.7894e-05 9.24905 33.5565 41.9273 0.0122473 1e-05 1.30007 1.56678e-07 300.844 0 5.99114e-09 0.999911 8.85356e-05 
-0.00971979 -0.00608 -0.00794544 -9.986 0.00946303 -0.00314533 298.678 1.7894e-05 7.20281 -66.607 20.3299 0.0122448 1e-05 1.30007 1.56646e-07 300.844 0 5.99114e-09 0.999911 8.85356e-05 
-0.00819979 -0.00912 -0.00490544 -9.98153 0.00400416 -0.00353504 298.699 1.7894e-05 13.8743 0.171383 10.5823 0.0122445 1e-05 1.30007 1.56642e-07 300.844 0 5.99114e-09 0.999911 8.85356e-05 
-0.00667979 -0.0076 -0.00642544 -9.98619 0.00845194 0.00610059 298.69 1.7894e-05 -24.3594 13.7472 29.0865 0.0122384 1e-05 1.30007 1.56565e-07 300.844 0 5.99114e-09 0.999911 8.85356e-05 
-0.00591979 -0.00684 -0.00718544 -9.99196 0.00396563 0.00759445 298.669 1.7894e-05 -13.5212 -28.5601 -23.0359 0.0122341 1e-05 1.30007 1.56509e-07 300.844 0 5.99114e-09 0.999911 8.85356e-05 
-0.00667979 -0.00608 -0.00794544 -9.99507 0.00310459 0.00492623 298.683 1.7894e-05 12.4781 -63.1671 -26.2884 0.0122367 1e-05 1.30007 1.56542e-07 300.844 0 5.99114e-09 0.999911 8.85356e-05 
-0.00667979 -0.00456 -0.00946544 -9.99541 -0.0045871 0.000543163 298.728 1.7894e-05 44.8151 22.3382 -56.6562 0.0122335 1e-05 1.30007 1.56502e-07 300.844 0 5.99114e-09 0.999911 8.85356e-05 
-0.00592227 -0.00533013 -0.0102956 -10.0092 -0.00237797 0.00147011 298.742 1.7894e-05 7.54452 17.489 3.3683 0.0122283 1e-05 1.30007 1.56436e-07 300.844 0 5.99114e-09 0.999911 8.85356e-05 
-0.00763319 -0.00526987 -0.0100081 -10.0122 -0.0018492 0.00363208 298.726 1.7894e-05 14.6875 3.98571 -10.9119 0.0122359 1e-05 1.30007 1.56533e-07 300.844 0 5.99114e-09 0.999911 8.85356e-05 
-0.00591979 -0.00532 -0.00870544 -10.0008 -0.00371112 0.00711087 298.704 1.7894e-05 47.2616 22.9995 -40.0014 0.0122316 1e-05 1.30007 1.56477e-07 300.844 0 5.99114e-09 0.999911 8.85356e-05 
-0.00743979 -0.00532 -0.00870544 -9.99243 0.00204386 0.00349785 298.655 1.7894e-05 21.7863 -62.4742 -83.0072 0.0122385 1e-05 1.30007 1.56566e-07 300.844 0 5.99114e-09 0.999911 8.85356e-05 
-0.00667979 -0.00608 -0.00946544 -10.0087 -0.000558608 0.00710501 298.732 1.7894e-05 9.13567 -1.94423 -16.4123 0.0122337 1e-05 1.30007 1.56504e-07 300.844 0 5.99114e-09 0.999911 8.85356e-05 
-0.00743457 -0.00375087 -0.0101873 -10.0008 -0.00355614 -0.00183219 298.733 1.7894e-05 34.1586 1.01499 -40.8821 0.012235 1e-05 1.30007 1.56521e-07 300.844 0 5.99114e-09 0.999911 8.85356e-05 
-0.00581084 -0.00372268 -0.0104463 -9.99808 -0.00536133 -0.00504938 298.786 1.7894e-05 23.62 31.3052 25.2334 0.012227 1e-05 1.30007 1.56419e-07 300.844 0 5.99114e-09 0.999911 8.85356e-05 
-0.00819979 -0.00608 -0.00794544 -9.98904 0.00613774 -0.000113617 298.676 1.7894e-05 2.16781 -86.0222 -12.5367 0.0122422 1e-05 1.30007 1.56613e-07 300.844 0 5.99114e-09 0.999911 8.85356e-05 
-0.00769595 -0.00701255 -0.0087892 -10.0078 0.00115799 0.00764291 298.723 1.7894e-05 4.78669 -14.482 -6.40203 0.0122386 1e-05 1.30007 1.56567e-07 300.844 0 5.99114e-09 0.999911 8.85356e-05 
-0.00515979 -0.00608 -0.00794544 -9.99917 -0.00280021 0.00769176 298.711 1.7894e-05 39.5017 10.5409 -46.2162 0.0122289 1e-05 1.30007 1.56443e-07 300.844 0 5.99114e-09 0.999911 8.85356e-05 
-0.00439979 -0.00532 -0.00870544 -9.99793 -0.00556835 0.00210527 298.776 1.7894e-05 51.3385 36.3679 11.5937 0.0122236 1e-05 1.30007 1.56376e-07 300.844 0 5.99114e-09 0.999911 8.85356e-05 
-0.00515979 -0.00456 -0.00946544 -9.99483 -0.00740392 -0.000870659 298.772 1.7894e-05 15.7836 52.3194 18.733 0.0122264 1e-05 1.30007 1.56412e-07 300.844 0 5.99114e-09 0.999911 8.85356e-05 
-0.00921186 -0.00690703 -0.00879076 -10.0058 0.00156622 0.00519589 298.684 1.7894e-05 16.9736 -10.2037 -1.28033 0.012244 1e-05 1.30007 1.56637e-07 300.844 0 5.99114e-09 0.999911 8.85356e-05 
-0.00135961 -0.00531983 -0.00860153 -9.99603 -0.00111213 0.00496224 298.874 1.7894e-05 -18.903 72.0606 10.7521 0.0122148 1e-05 1.30007 1.56263e-07 300.844 0 5.99114e-09 0.999911 8.85356e-05 
-0.00209921 -0.00613529 0.00727122 -10.0073 0.0184871 0.0253885 298.716 1.7894e-05 208.141 -27.0682 -151.07 0.0122094 1e-05 1.30007 1.56194e-07 300.844 0 5.99114e-09 0.999911 8.85356e-05 
-0.00211979 -0.00456 0.00877456 -9.99018 0.00116153 -0.0179704 298.828 1.7894e-05 2.75159 44.8519 58.2618 0.0122081 1e-05 1.30007 1.56177e-07 300.844 0 5.99114e-09 0.999911 8.85356e-05 
-0.00287979 -0.0038 0.00953456 -10.0012 -0.00131026 -0.0134104 298.839 1.7894e-05 46.4858 22.3237 -27.9667 0.01221 1e-05 1.30007 1.56202e-07 300.844 0 5.99114e-09 0.999911 8.85356e-05 
-0.00211979 -0.00456 0.0102946 -10.0038 0.00318325 -0.0153805 298.887 1.7894e-05 56.048 -21.9173 73.9763 0.0122083 1e-05 1.30007 1.5618e-07 300.844 0 5.99114e-09 0.999911 8.85356e-05 
-0.0030378 -0.00228536 0.0111219 -10.027 0.0116285 -0.0323068 298.794 1.7894e-05 95.8148 -48.6454 49.2656 0.0122078 1e-05 1.30007 1.56173e-07 300.844 0 5.99114e-09 0.999911 8.85356e-05 
-0.00133731 -0.0018982 0.0106136 -10.0041 0.00707975 -0.012383 298.869 1.7894e-05 16.7707 -78.6476 113.348 0.0122069 1e-05 1.30007 1.56162e-07 300.844 0 5.99114e-09 0.999911 8.85356e-05 
-0.000928894 -0.00343567 0.010087 -9.99744 0.00197457 -0.0053526 298.9 1.7894e-05 -20.6934 -32.2056 92.7331 0.0122094 1e-05 1.30007 1.56193e-07 300.844 0 5.99114e-09 0.999911 8.85356e-05 
-0.00592268 -0.0099535 0.00498479 -10.0078 -0.00594092 -0.00453488 298.617 1.7894e-05 48.2272 -2.99418 14.5366 0.0122314 1e-05 1.30007 1.56476e-07 300.844 0 5.99114e-09 0.999911 8.85356e-05 
-0.00667979 -0.00912 0.00573456 -10.0143 -0.00812144 -0.00190983 298.667 1.7894e-05 19.5099 55.019 9.46601 0.0122346 1e-05 1.30007 1.56516e-07 300.844 0 5.99114e-09 0.999911 8.85356e-05 
-0.00571417 -0.0101392 0.00336664 -10.0091 0.000841656 -0.0046635 298.649 1.7894e-05 49.653 12.8781 -5.10965 0.0122326 1e-05 1.30007 1.56491e-07 300.844 0 5.99114e-09 0.999911 8.85356e-05 
-0.00515979 -0.00912 0.00421456 -10.0078 -0.000151719 -0.00600389 298.71 1.7894e-05 42.1709 40.9614 1.9831 0.0122299 1e-05 1.30007 1.56456e-07 300.844 0 5.99114e-09 0.999911 8.85356e-05 
-0.00742477 -0.00975175 0.00332891 -10.0006 -0.00172394 -0.00141741 298.614 1.7894e-05 3.56789 -29.124 2.07337 0.0122408 1e-05 1.30007 1.56596e-07 300.844 0 5.99114e-09 0.999911 8.85356e-05 
-0.00667979 -0.01064 0.00269456 -10.0011 -0.00255846 0.00118235 298.642 1.7894e-05 10.612 -36.7168 -18.4562 0.0122368 1e-05 1.30007 1.56544e-07 300.844 0 5.99114e-09 0.999911 8.85356e-05 
-0.00515979 -0.0076 0.00573456 -10.0144 -0.000378988 -0.00282202 298.883 1.7894e-05 -13.885 -70.6613 128.076 0.0122286 1e-05 1.30007 1.56439e-07 300.844 0 5.99114e-09 0.999911 8.85356e-05 
-0.00439979 -0.00836 0.00497456 -10.0108 -0.000137327 -0.00505442 298.796 1.7894e-05 25.1236 -87.7217 74.3553 0.0122251 1e-05 1.30007 1.56394e-07 300.844 0 5.99114e-09 0.999911 8.85356e-05 
-0.000599786 -0.00912 0.00421456 -9.98925 0.00778768 -0.0136302 298.734 1.7894e-05 -135.63 -58.5026 270.533 0.0122222 1e-05 1.30007 1.56358e-07 300.844 0 5.99114e-09 0.999911 8.85356e-05 
-0.00145857 -0.00825881 0.00489758 -9.98235 -0.0177868 -0.0139306 299.006 1.7894e-05 -3.19378 273.763 130.455 0.012214 1e-05 1.30007 1.56253e-07 300.844 0 5.99114e-09 0.999911 8.85356e-05 
-0.00180516 -0.010349 0.0053322 -10.0031 0.00348606 -0.0050594 298.931 1.7894e-05 36.7592 -37.6892 14.3612 0.0122196 1e-05 1.30007 1.56324e-07 300.844 0 5.99114e-09 0.999911 8.85356e-05 
-0.0019936 -0.00910777 0.00416514 -9.9919 0.00243506 -0.0181186 298.804 1.7894e-05 25.7515 -26.187 106.121 0.0122171 1e-05 1.30007 1.56292e-07 300.844 0 5.99114e-09 0.999911 8.85356e-05 
-0.00141551 -0.00991755 0.00330711 -9.99252 0.0100174 -0.00984316 298.764 1.7894e-05 -20.7981 -74.3726 59.5173 0.0122205 1e-05 1.30007 1.56336e-07 300.844 0 5.99114e-09 0.999911 8.85356e-05 
-0.00191124 -0.00921582 0.006337 -10.0043 -0.00968841 0.00226333 298.91 1.7894e-05 75.1057 86.8272 -27.2892 0.0122155 1e-05 1.30007 1.56271e-07 300.844 0 5.99114e-09 0.999911 8.85356e-05 
-0.000652812 -0.0106295 0.00270369 -9.99916 0.00591427 -0.00177307 298.783 1.7894e-05 -1.12974 -122.186 24.3225 0.012227 1e-05 1.30007 1.56419e-07 300.844 0 5.99114e-09 0.999911 8.85356e-05 
-0.0104815 -0.000770122 -0.0102269 -10.0012 0.00184493 -0.00428976 298.654 1.7894e-05 61.3055 35.5893 -36.618 0.0122394 1e-05 1.30007 1.56578e-07 300.844 0 5.99114e-09 0.999911 8.85356e-05 
-0.00895979 -0.00076 -0.0102254 -9.99425 0.00138572 -0.0030426 298.764 1.7894e-05 46.0992 37.1386 39.6876 0.0122371 1e-05 1.30007 1.56548e-07 300.844 0 5.99114e-09 0.999911 8.85356e-05 
-0.0106264 -0.00224199 -0.0100606 -9.99544 -0.00237763 -0.00907112 298.609 1.7894e-05 41.0672 20.3144 -59.0978 0.0122408 1e-05 1.30007 1.56595e-07 300.844 0 5.99114e-09 0.999911 8.85356e-05 
-0.00882416 -0.00255124 -0.0104981 -9.99538 -0.000462712 -0.00535215 298.702 1.7894e-05 48.82 24.4207 -19.7374 0.0122377 1e-05 1.30007 1.56556e-07 300.844 0 5.99114e-09 0.999911 8.85356e-05 
-0.00819979 -0.00152 -0.0109854 -10.0005 0.00210978 -0.00373298 298.746 1.7894e-05 20.5132 7.29552 17.9011 0.0122349 1e-05 1.30007 1.5652e-07 300.844 0 5.99114e-09 0.999911 8.85356e-05 
-0.0106055 -0.00669871 -0.00867286 -10.0065 0.00264767 0.00343028 298.643 1.7894e-05 28.168 -12.9108 3.36823 0.0122477 1e-05 1.30007 1.56684e-07 300.844 0 5.99114e-09 0.999911 8.85356e-05 
-0.0105183 -0.00535718 -0.00869945 -9.99117 0.0101124 -0.00429537 298.585 1.7894e-05 50.8536 -110.299 -29.9366 0.012245 1e-05 1.30007 1.5665e-07 300.844 0 5.99114e-09 0.999911 8.85356e-05 
-0.00971979 -0.00608 -0.00946544 -10.0079 0.00393007 0.00483754 298.667 1.7894e-05 30.7049 -14.7336 -12.7986 0.0122443 1e-05 1.30007 1.5664e-07 300.844 0 5.99114e-09 0.999911 8.85356e-05 
-0.0112398 -0.00456 -0.00946544 -9.99841 0.00645411 -0.00272473 298.535 1.7894e-05 28.7992 -83.7848 -104.048 0.0122456 1e-05 1.30007 1.56656e-07 300.844 0 5.99114e-09 0.999911 8.85356e-05 
-0.0106321 0.00207353 -0.0102212 -10.0088 0.00982 0.00305776 298.654 1.7894e-05 33.8629 -34.2209 -27.8146 0.0122355 1e-05 1.30007 1.56527e-07 300.844 0 5.99114e-09 0.999911 8.85356e-05 
-0.0103968 0.000717016 -0.00947411 -9.99879 0.00828408 -0.00231009 298.69 1.7894e-05 90.6607 18.0365 -45.806 0.012237 1e-05 1.30007 1.56546e-07 300.844 0 5.99114e-09 0.999911 8.85356e-05 
-0.00977992 0.0013696 -0.00927117 -9.99286 0.0106208 0.00635975 298.694 1.7894e-05 230.95 -103.727 -17.7998 0.012235 1e-05 1.30007 1.56522e-07 300.844 0 5.99114e-09 0.999911 8.85356e-05 
-0.00906829 0.0021715 -0.0102257 -10.0076 0.00940823 0.00209499 298.72 1.7894e-05 63.7664 -56.9795 12.166 0.0122331 1e-05 1.30007 1.56497e-07 300.844 0 5.99114e-09 0.999911 8.85356e-05 
-0.00971979 0.00304 -0.0109854 -10.0158 0.00614936 0.000513308 298.685 1.7894e-05 19.2649 -4.90076 -8.64681 0.0122331 1e-05 1.30007 1.56497e-07 300.844 0 5.99114e-09 0.999911 8.85356e-05 
-0.00895979 0.00076 -0.0102254 -9.99772 0.00560595 0.00037944 298.791 1.7894e-05 83.407 -27.5126 77.3751 0.0122354 1e-05 1.30007 1.56526e-07 300.844 0 5.99114e-09 0.999911 8.85356e-05 
-0.00980923 -6.8925e-05 -0.0109373 -10.0069 0.00334118 -0.0023656 298.71 1.7894e-05 29.8968 2.196 27.5649 0.0122379 1e-05 1.30007 1.56559e-07 300.844 0 5.99114e-09 0.999911 8.85356e-05 
-0.00298038 -0.00849252 -0.00555712 -9.99477 -0.00173691 -0.00395022 298.836 1.7894e-05 -10.3195 74.234 68.5554 0.0122203 1e-05 1.30007 1.56333e-07 300.844 0 5.99114e-09 0.999911 8.85356e-05 
-0.00363979 -0.0076 -0.00642544 -9.99467 0.000173405 -0.00329042 298.781 1.7894e-05 47.9234 16.9937 107.338 0.0122229 1e-05 1.30007 1.56366e-07 300.844 0 5.99114e-09 0.999911 8.85356e-05 
-0.00422001 -0.00843973 -0.00570182 -9.99605 0.00290011 -0.00462861 298.799 1.7894e-05 53.9182 35.6657 95.8417 0.012227 1e-05 1.30007 1.56419e-07 300.844 0 5.99114e-09 0.999911 8.85356e-05 
-0.00298301 -0.00825188 -0.00716922 -10.0005 -0.00325348 -0.000357404 298.763 1.7894e-05 15.0144 -2.35419 12.3531 0.0122197 1e-05 1.30007 1.56325e-07 300.844 0 5.99114e-09 0.999911 8.85356e-05 
-0.00369799 -0.00905809 -0.00645984 -9.99654 -0.0073204 -0.00499605 298.76 1.7894e-05 9.33104 -4.79382 20.0347 0.012223 1e-05 1.30007 1.56367e-07 300.844 0 5.99114e-09 0.999911 8.85356e-05 